    -----------------------------------------------------------------------
          PSI4: An Open-Source Ab Initio Electronic Structure Package
                              PSI 4.0 Driver

               Git: Rev {istring} c95b0a04df936b1d4860979d049c36fa909486bc

    J. M. Turney, A. C. Simmonett, R. M. Parrish, E. G. Hohenstein,
    F. A. Evangelista, J. T. Fermann, B. J. Mintz, L. A. Burns, J. J. Wilke,
    M. L. Abrams, N. J. Russ, M. L. Leininger, C. L. Janssen, E. T. Seidl,
    W. D. Allen, H. F. Schaefer, R. A. King, E. F. Valeev, C. D. Sherrill,
    and T. D. Crawford, WIREs Comput. Mol. Sci. 2, 556-565 (2012)
    (doi: 10.1002/wcms.93)

                         Additional Contributions by
    A. E. DePrince, M. Saitow, U. Bozkaya, A. Yu. Sokolov
    -----------------------------------------------------------------------

    Process ID:  14438
    PSI4DATADIR: /home/ward/tmp/psi4release/build/external/share/psi
    Memory level set to 256.000 MB

  ==> Input File <==

--------------------------------------------------------------------------
molecule He2
{
    He
    He 1 R
    units au
    # The symmetry needs to be broken to find the correct dissociation energy
    symmetry c1
}

set {
# exact ERI
    SCF_TYPE PK

# strict convergence
    E_CONVERGENCE 1e-12
    D_CONVERGENCE 1e-12
    ints_tolerance 1e-16

    guess read

    basis cc-pvdz
}


# Put them 10 Bohr apart
He2.R = 10

energy('scf')

so_ints = "so-ints-he2-cc-pvdz-%06.2f.h5" % He2.R
mo_ints = "mo-ints-he2-cc-pvdz-%06.2f.h5" % He2.R
mo_tf = "unitary-mo-he2-cc-pvdz-%06.2f.h5" % He2.R

plugin_load("./mointegrals.so")

set mointegrals {
    do_tei True
    savehdf5 true
    save_mo true
    HDF5_FILENAME $mo_ints
    U_MO_FILENAME $mo_tf
}

plugin("mointegrals.so")

plugin_load("./sointegrals.so")

set sointegrals {
    SAVEHDF5 true
    HDF5_FILENAME $so_ints
}

plugin("sointegrals.so")
--------------------------------------------------------------------------

 Input file to run:
from psi4 import *
from p4const import *
from p4util import *
from molutil import *
from aliases import *
psi4_io = psi4.IOManager.shared_object()
psi4.efp_init()
geometry("""
0 1
H
H 1 0.74
""","blank_molecule_psi4_yo")
psi4.efp_init()
He2 = geometry("""
    He
    He 1 R
    units au
   
    symmetry c1
""","He2")
psi4.IO.set_default_namespace("He2")
psi4.set_global_option("SCF_TYPE", "PK")
psi4.set_global_option("E_CONVERGENCE", 1e-12)
psi4.set_global_option("D_CONVERGENCE", 1e-12)
psi4.set_global_option("INTS_TOLERANCE", 1e-16)
psi4.set_global_option("GUESS", "read")
psi4.set_global_option("BASIS", "cc-pvdz")
He2.R = 10
energy('scf')
so_ints = "so-ints-he2-cc-pvdz-%06.2f.h5" % He2.R
mo_ints = "mo-ints-he2-cc-pvdz-%06.2f.h5" % He2.R
mo_tf = "unitary-mo-he2-cc-pvdz-%06.2f.h5" % He2.R
plugin_load("./mointegrals.so")
psi4.set_local_option("MOINTEGRALS", "DO_TEI", "True")
psi4.set_local_option("MOINTEGRALS", "SAVEHDF5", "true")
psi4.set_local_option("MOINTEGRALS", "SAVE_MO", "true")
psi4.set_local_option("MOINTEGRALS", "HDF5_FILENAME", mo_ints)
psi4.set_local_option("MOINTEGRALS", "U_MO_FILENAME", mo_tf)
plugin("mointegrals.so")
plugin_load("./sointegrals.so")
psi4.set_local_option("SOINTEGRALS", "SAVEHDF5", "true")
psi4.set_local_option("SOINTEGRALS", "HDF5_FILENAME", so_ints)
plugin("sointegrals.so")
Setting geometry variable R to 10.000000

*** tstart() called on molmod57.ugent.be
*** at Thu Apr 23 16:32:27 2015

    There are an even number of electrons - assuming singlet.
    Specify the multiplicity with the MULTP option in the
    input if this is incorrect


         ---------------------------------------------------------
                                   SCF
            by Justin Turney, Rob Parrish, and Andy Simmonett
                              RHF Reference
                        1 Threads,    256 MiB Core
         ---------------------------------------------------------

  ==> Geometry <==

    Molecular point group: c1
    Full point group: D_inf_h

    Geometry (in Bohr), charge = 0, multiplicity = 1:

       Center              X                  Y                   Z       
    ------------   -----------------  -----------------  -----------------
          HE          0.000000000000     0.000000000000    -5.000000000000
          HE          0.000000000000     0.000000000000     5.000000000000

  Running in c1 symmetry.

  Rotational constants: A = ************  B =      0.30080  C =      0.30080 [cm^-1]
  Rotational constants: A = ************  B =   9017.83709  C =   9017.83709 [MHz]
  Nuclear repulsion =    0.400000000000000

  Charge       = 0
  Multiplicity = 1
  Electrons    = 4
  Nalpha       = 2
  Nbeta        = 2

  ==> Algorithm <==

  SCF Algorithm Type is PK.
  DIIS enabled.
  MOM disabled.
  Fractional occupation disabled.
  Guess Type is READ.
  Energy threshold   = 1.00e-12
  Density threshold  = 1.00e-12
  Integral threshold = 1.00e-16

  ==> Primary Basis <==

  Basis Set: CC-PVDZ
    Number of shells: 6
    Number of basis function: 10
    Number of Cartesian functions: 10
    Spherical Harmonics?: true
    Max angular momentum: 1

  ==> Pre-Iterations <==

   -------------------------------------------------------
    Irrep   Nso     Nmo     Nalpha   Nbeta   Ndocc  Nsocc
   -------------------------------------------------------
     A         10      10       0       0       0       0
   -------------------------------------------------------
    Total      10      10       2       2       2       0
   -------------------------------------------------------

  Starting with a DF guess...

 OEINTS: Overlap, kinetic, potential, dipole, and quadrupole integrals
         stored in file 35.

  ==> Integral Setup <==

  ==> DFJK: Density-Fitted J/K Matrices <==

    J tasked:                  Yes
    K tasked:                  Yes
    wK tasked:                  No
    OpenMP threads:              1
    Integrals threads:           1
    Memory (MB):               183
    Algorithm:                Core
    Integral Cache:           NONE
    Schwarz Cutoff:          1E-16
    Fitting Condition:       1E-12

   => Auxiliary Basis Set <=

  Basis Set: 
    Number of shells: 18
    Number of basis function: 46
    Number of Cartesian functions: 50
    Spherical Harmonics?: true
    Max angular momentum: 2

  Minimum eigenvalue in the overlap matrix is 3.6583209588E-01.
  Using Symmetric Orthogonalization.
  SCF Guess was Projection but file not found.
  Switching over to SAD guess.

  SCF Guess: Superposition of Atomic Densities via on-the-fly atomic UHF.

  ==> Iterations <==

                           Total Energy        Delta E     RMS |[F,P]|

   @DF-RHF iter   0:    -5.71037753928944   -5.71038e+00   7.35180e-06 
   @DF-RHF iter   1:    -5.71037754180553   -2.51609e-09   5.65418e-07 
   @DF-RHF iter   2:    -5.71037754182042   -1.48850e-11   4.35076e-08 DIIS
   @DF-RHF iter   3:    -5.71037754182051   -9.14824e-14   9.92414e-11 DIIS
   @DF-RHF iter   4:    -5.71037754182050    4.44089e-15   1.17947e-11 DIIS
   @DF-RHF iter   5:    -5.71037754182051   -1.77636e-15   3.59158e-14 DIIS

  DF guess converged.

  ==> Integral Setup <==

 MINTS: Wrapper to libmints.
   by Justin Turney

   Calculation information:
      Number of atoms:                   2
      Number of AO shells:               6
      Number of SO shells:               6
      Number of primitives:             10
      Number of atomic orbitals:        10
      Number of basis functions:        10

      Number of irreps:                  1
      Integral cutoff                 1.00e-16
      Number of functions per irrep: [  10 ]

 OEINTS: Overlap, kinetic, potential, dipole, and quadrupole integrals
         stored in file 35.

      Computing two-electron integrals...done
      Computed 254 non-zero two-electron integrals.
        Stored in file 33.

	Batch   1 pq = [       0,      55] index = [             0,1540]
  ==> DiskJK: Disk-Based J/K Matrices <==

    J tasked:                  Yes
    K tasked:                  Yes
    wK tasked:                  No
    Memory (MB):               183
    Schwarz Cutoff:          1E-16

   @RHF iter   6:    -5.71032095182341    5.65900e-05   7.54309e-06 DIIS
   @RHF iter   7:    -5.71032095447095   -2.64753e-09   5.71481e-07 DIIS
   @RHF iter   8:    -5.71032095448622   -1.52767e-11   8.55143e-10 DIIS
   @RHF iter   9:    -5.71032095448623   -5.32907e-15   1.01925e-10 DIIS
   @RHF iter  10:    -5.71032095448623    2.66454e-15   7.21886e-16 DIIS

  ==> Post-Iterations <==

    Orbital Energies (a.u.)
    -----------------------

    Doubly Occupied:                                                      

       1A     -0.914148     2A     -0.914148  

    Virtual:                                                              

       3A      1.397439     4A      1.397444     5A      2.524372  
       6A      2.524372     7A      2.524372     8A      2.524372  
       9A      2.524372    10A      2.524372  

    Final Occupation by Irrep:
              A 
    DOCC [     2 ]

  Energy converged.

  @RHF Final Energy:    -5.71032095448623

   => Energetics <=

    Nuclear Repulsion Energy =              0.4000000000000000
    One-Electron Energy =                  -8.5640502052153717
    Two-Electron Energy =                   2.4537292507291455
    DFT Exchange-Correlation Energy =       0.0000000000000000
    Empirical Dispersion Energy =           0.0000000000000000
    PCM Polarization Energy =               0.0000000000000000
    EFP Energy =                            0.0000000000000000
    Total Energy =                         -5.7103209544862263

    Alert: EFP and PCM quantities not currently incorporated into SCF psivars.

Properties will be evaluated at   0.000000,   0.000000,   0.000000 Bohr
  ==> Properties <==


Properties computed using the SCF density matrix

  Nuclear Dipole Moment: (a.u.)
     X:     0.0000      Y:     0.0000      Z:     0.0000

  Electronic Dipole Moment: (a.u.)
     X:     0.0000      Y:     0.0000      Z:     0.0000

  Dipole Moment: (a.u.)
     X:     0.0000      Y:     0.0000      Z:     0.0000     Total:     0.0000

  Dipole Moment: (Debye)
     X:     0.0000      Y:     0.0000      Z:     0.0000     Total:     0.0000


  Saving occupied orbitals to File 180.

*** tstop() called on molmod57.ugent.be at Thu Apr 23 16:32:27 2015
Module time:
	user time   =       0.26 seconds =       0.00 minutes
	system time =       0.01 seconds =       0.00 minutes
	total time  =          0 seconds =       0.00 minutes
Total time:
	user time   =       0.26 seconds =       0.00 minutes
	system time =       0.01 seconds =       0.00 minutes
	total time  =          0 seconds =       0.00 minutes
./mointegrals.so loaded.
Reading options from the MOINTEGRALS block
Calling plugin mointegrals.so.
	Presorting SO-basis two-electron integrals.
	Sorting File: SO Ints (nn|nn) nbuckets = 1
	Transforming the one-electron integrals and constructing Fock matrices
	Starting first half-transformation.
	Sorting half-transformed integrals.
	First half integral transformation complete.
	Starting second half-transformation.
	Two-electron integral transformation complete.
****  Molecular Integrals For CheMPS Start Here 
Symmetry Label = c1 
Nirreps = 1 
Nuclear Repulsion Energy = 0.400000000000000022204460492503130808472633361816 
Number Of Molecular Orbitals = 10 
Irreps Of Molecular Orbitals = 
0 0 0 0 0 0 0 0 0 0 
DOCC =  2 
SOCC =  0 
  ## C (Symmetry 0) ##
  Irrep: 1 Size: 10 x 10

                 1                   2                   3                   4                   5

    1     0.41904271511261     0.41904325603064     0.81287106567191     0.81287102489151     0.00000000480051
    2     0.36276494314551     0.36276445336470    -0.83949834654684    -0.83949913256273    -0.00000000553834
    3     0.00000000048034    -0.00000000048034    -0.00000000435930     0.00000000435932     0.70710338249381
    4    -0.00000000000000     0.00000000000000    -0.00000000000000     0.00000000000000    -0.00000388308703
    5    -0.00000000000000     0.00000000000000    -0.00000000000000     0.00000000000000    -0.00000000022158
    6     0.41904271333726    -0.41904325780599     0.81287106597649    -0.81287102458693     0.00000000480047
    7     0.36276494160859    -0.36276445490162    -0.83949834686140     0.83949913224817    -0.00000000553829
    8    -0.00000000048034    -0.00000000048034     0.00000000435930     0.00000000435932    -0.70711017985046
    9    -0.00000000000000    -0.00000000000000    -0.00000000000000    -0.00000000000000    -0.00000160970253
   10    -0.00000000000000    -0.00000000000000    -0.00000000000000     0.00000000000000     0.00000000000000

                 6                   7                   8                   9                  10

    1     0.00000000000003    -0.00000000000000     0.00000000000000     0.00000000000003    -0.00000000480049
    2    -0.00000000000003     0.00000000000000    -0.00000000000000    -0.00000000000003     0.00000000553832
    3     0.00000155163072     0.00000000046024    -0.00000016698180    -0.00000176544227     0.70711017985903
    4     0.70710081569908     0.00000575420391     0.06677250246408     0.70395303059745     0.00000410476746
    5    -0.00000592574603     0.70709760129936     0.70395624678709    -0.06677263519589    -0.00000000069991
    6     0.00000000000001     0.00000000000000    -0.00000000000000    -0.00000000000001     0.00000000480054
    7    -0.00000000000001    -0.00000000000000     0.00000000000000     0.00000000000001    -0.00000000553838
    8    -0.00000394112818     0.00000000020667    -0.00000038189276    -0.00000402866430     0.70710338248374
    9     0.70711274658617     0.00000017151229    -0.06676547654085    -0.70394171260984    -0.00000171524731
   10    -0.00000000000000     0.70711596093113    -0.70393849636613     0.06676534378133     0.00000000000000



  ## S (Symmetry 0) ##
  Irrep: 1 Size: 10 x 10

                 1                   2                   3                   4                   5

    1     1.00000000000000     0.63416773169357     0.00000000000000     0.00000000000000     0.00000000000000
    2     0.63416773169357     1.00000000000000     0.00000000000000     0.00000000000000     0.00000000000000
    3     0.00000000000000     0.00000000000000     1.00000000000000     0.00000000000000     0.00000000000000
    4     0.00000000000000     0.00000000000000     0.00000000000000     1.00000000000000     0.00000000000000
    5     0.00000000000000     0.00000000000000     0.00000000000000     0.00000000000000     1.00000000000000
    6     0.00000000000000     0.00000000002107     0.00000000000000     0.00000000000000     0.00000000000000
    7     0.00000000002107     0.00000034490390     0.00000000009841     0.00000000000000     0.00000000000000
    8    -0.00000000000000    -0.00000000009841    -0.00000000000000     0.00000000000000     0.00000000000000
    9     0.00000000000000     0.00000000000000     0.00000000000000     0.00000000000000     0.00000000000000
   10     0.00000000000000     0.00000000000000     0.00000000000000     0.00000000000000     0.00000000000000

                 6                   7                   8                   9                  10

    1     0.00000000000000     0.00000000002107    -0.00000000000000     0.00000000000000     0.00000000000000
    2     0.00000000002107     0.00000034490390    -0.00000000009841     0.00000000000000     0.00000000000000
    3     0.00000000000000     0.00000000009841    -0.00000000000000     0.00000000000000     0.00000000000000
    4     0.00000000000000     0.00000000000000     0.00000000000000     0.00000000000000     0.00000000000000
    5     0.00000000000000     0.00000000000000     0.00000000000000     0.00000000000000     0.00000000000000
    6     1.00000000000000     0.63416773169357    -0.00000000000000     0.00000000000000     0.00000000000000
    7     0.63416773169357     1.00000000000000     0.00000000000000     0.00000000000000     0.00000000000000
    8    -0.00000000000000     0.00000000000000     1.00000000000000     0.00000000000000     0.00000000000000
    9     0.00000000000000     0.00000000000000     0.00000000000000     1.00000000000000     0.00000000000000
   10     0.00000000000000     0.00000000000000     0.00000000000000     0.00000000000000     1.00000000000000



Lowest eigenvalue of overlap S = 3.6583209588E-01
  ## temp_ca AO x MO (Symmetry 0) ##
  Irrep: 1 Size: 10 x 10

                 1                   2                   3                   4                   5

    1     0.41904271511261     0.41904325603064     0.81287106567191     0.81287102489151     0.00000000480051
    2     0.36276494314551     0.36276445336470    -0.83949834654684    -0.83949913256273    -0.00000000553834
    3    -0.00000000000000     0.00000000000000    -0.00000000000000     0.00000000000000    -0.00000388308703
    4    -0.00000000000000     0.00000000000000    -0.00000000000000     0.00000000000000    -0.00000000022158
    5     0.00000000048034    -0.00000000048034    -0.00000000435930     0.00000000435932     0.70710338249381
    6     0.41904271333726    -0.41904325780599     0.81287106597649    -0.81287102458693     0.00000000480047
    7     0.36276494160859    -0.36276445490162    -0.83949834686140     0.83949913224817    -0.00000000553829
    8    -0.00000000000000    -0.00000000000000    -0.00000000000000    -0.00000000000000    -0.00000160970253
    9     0.00000000000000     0.00000000000000     0.00000000000000     0.00000000000000     0.00000000000000
   10    -0.00000000048034    -0.00000000048034     0.00000000435930     0.00000000435932    -0.70711017985046

                 6                   7                   8                   9                  10

    1     0.00000000000003    -0.00000000000000     0.00000000000000     0.00000000000003    -0.00000000480049
    2    -0.00000000000003     0.00000000000000    -0.00000000000000    -0.00000000000003     0.00000000553832
    3     0.70710081569908     0.00000575420391     0.06677250246408     0.70395303059745     0.00000410476746
    4    -0.00000592574603     0.70709760129936     0.70395624678709    -0.06677263519589    -0.00000000069991
    5     0.00000155163072     0.00000000046024    -0.00000016698180    -0.00000176544227     0.70711017985903
    6     0.00000000000001     0.00000000000000    -0.00000000000000    -0.00000000000001     0.00000000480054
    7    -0.00000000000001    -0.00000000000000     0.00000000000000     0.00000000000001    -0.00000000553838
    8     0.70711274658617     0.00000017151229    -0.06676547654085    -0.70394171260984    -0.00000171524731
    9     0.00000000000000     0.70711596093113    -0.70393849636613     0.06676534378133     0.00000000000000
   10    -0.00000394112818     0.00000000020667    -0.00000038189276    -0.00000402866430     0.70710338248374



  ## ca AO x AO (Symmetry 0) ##
  Irrep: 1 Size: 10 x 10

                 1                   2                   3                   4                   5

    1     0.41904271511261     0.41904325603064     0.81287102489151     0.00000000480051     0.81287106567191
    2     0.36276494314551     0.36276445336470    -0.83949913256273    -0.00000000553834    -0.83949834654684
    3    -0.00000000000000     0.00000000000000     0.00000000000000    -0.00000388308703    -0.00000000000000
    4    -0.00000000000000     0.00000000000000     0.00000000000000    -0.00000000022158    -0.00000000000000
    5     0.00000000048034    -0.00000000048034     0.00000000435932     0.70710338249381    -0.00000000435930
    6     0.41904271333726    -0.41904325780599    -0.81287102458693     0.00000000480047     0.81287106597649
    7     0.36276494160859    -0.36276445490162     0.83949913224817    -0.00000000553829    -0.83949834686140
    8    -0.00000000000000    -0.00000000000000    -0.00000000000000    -0.00000160970253    -0.00000000000000
    9     0.00000000000000     0.00000000000000     0.00000000000000     0.00000000000000     0.00000000000000
   10    -0.00000000048034    -0.00000000048034     0.00000000435932    -0.70711017985046     0.00000000435930

                 6                   7                   8                   9                  10

    1     0.00000000000003    -0.00000000000000     0.00000000000003    -0.00000000480049     0.00000000000000
    2    -0.00000000000003     0.00000000000000    -0.00000000000003     0.00000000553832    -0.00000000000000
    3     0.70710081569908     0.00000575420391     0.70395303059745     0.00000410476746     0.06677250246408
    4    -0.00000592574603     0.70709760129936    -0.06677263519589    -0.00000000069991     0.70395624678709
    5     0.00000155163072     0.00000000046024    -0.00000176544227     0.70711017985903    -0.00000016698180
    6     0.00000000000001     0.00000000000000    -0.00000000000001     0.00000000480054    -0.00000000000000
    7    -0.00000000000001    -0.00000000000000     0.00000000000001    -0.00000000553838     0.00000000000000
    8     0.70711274658617     0.00000017151229    -0.70394171260984    -0.00000171524731    -0.06676547654085
    9     0.00000000000000     0.70711596093113     0.06676534378133     0.00000000000000    -0.70393849636613
   10    -0.00000394112818     0.00000000020667    -0.00000402866430     0.70710338248374    -0.00000038189276



If anything went wrong: Is c1 equal to c1 ?
****  MO OEI 
****  MO TEI 
****  HF Energy = -5.710320954486227229551786876982077956199645996094 
****  The debug check of Hamiltonian ****
Econst = 0.400000000000000022204460 
1-electron integrals: Sum over all elements  : -2.645049562069350379545085 
1-electron integrals: Sum over Tij with i<=j : -1.998783457623335646502483 
2-electron integrals: Sum over all elements          : 129.414986533350344188875169 
2-electron integrals: Sum over Vijkl with i<=j<=k<=l : 11.621932351607860312014964 
./sointegrals.so loaded.
Reading options from the SOINTEGRALS block
Calling plugin sointegrals.so.
Got filename: SO-INTS-HE2-CC-PVDZ-010.00.H5
    Molecular point group: c1
    Full point group: D_inf_h

    Geometry (in Bohr), charge = 0, multiplicity = 1:

       Center              X                  Y                   Z       
    ------------   -----------------  -----------------  -----------------
          HE          0.000000000000     0.000000000000    -5.000000000000
          HE          0.000000000000     0.000000000000     5.000000000000

****  Molecular Integrals Start Here 
Symmetry Label = c1
Nuclear Repulsion Energy = 0.400000000000000022204460492503130808472633361816 
Nelectrons = 4 
Nirreps = 1 
Dimension of Irreps = 10 
Number Of SO Orbitals = 10 
Irreps Of SO Orbitals =  0  0  0  0  0  0  0  0  0  0 
  ## Overlap (Symmetry 0) ##
  Irrep: 1 Size: 10 x 10

                 1                   2                   3                   4                   5

    1     1.00000000000000     0.63416773169357     0.00000000000000     0.00000000000000     0.00000000000000
    2     0.63416773169357     1.00000000000000     0.00000000000000     0.00000000000000     0.00000000000000
    3     0.00000000000000     0.00000000000000     1.00000000000000     0.00000000000000     0.00000000000000
    4     0.00000000000000     0.00000000000000     0.00000000000000     1.00000000000000     0.00000000000000
    5     0.00000000000000     0.00000000000000     0.00000000000000     0.00000000000000     1.00000000000000
    6     0.00000000000000     0.00000000002107     0.00000000000000     0.00000000000000     0.00000000000000
    7     0.00000000002107     0.00000034490390     0.00000000009841     0.00000000000000     0.00000000000000
    8    -0.00000000000000    -0.00000000009841    -0.00000000000000     0.00000000000000     0.00000000000000
    9     0.00000000000000     0.00000000000000     0.00000000000000     0.00000000000000     0.00000000000000
   10     0.00000000000000     0.00000000000000     0.00000000000000     0.00000000000000     0.00000000000000

                 6                   7                   8                   9                  10

    1     0.00000000000000     0.00000000002107    -0.00000000000000     0.00000000000000     0.00000000000000
    2     0.00000000002107     0.00000034490390    -0.00000000009841     0.00000000000000     0.00000000000000
    3     0.00000000000000     0.00000000009841    -0.00000000000000     0.00000000000000     0.00000000000000
    4     0.00000000000000     0.00000000000000     0.00000000000000     0.00000000000000     0.00000000000000
    5     0.00000000000000     0.00000000000000     0.00000000000000     0.00000000000000     0.00000000000000
    6     1.00000000000000     0.63416773169357    -0.00000000000000     0.00000000000000     0.00000000000000
    7     0.63416773169357     1.00000000000000     0.00000000000000     0.00000000000000     0.00000000000000
    8    -0.00000000000000     0.00000000000000     1.00000000000000     0.00000000000000     0.00000000000000
    9     0.00000000000000     0.00000000000000     0.00000000000000     1.00000000000000     0.00000000000000
   10     0.00000000000000     0.00000000000000     0.00000000000000     0.00000000000000     1.00000000000000



  ## Kinetic (Symmetry 0) ##
  Irrep: 1 Size: 10 x 10

                 1                   2                   3                   4                   5

    1     2.92243495445378     0.46665999220234     0.00000000000000     0.00000000000000     0.00000000000000
    2     0.46665999220234     0.44640000000000     0.00000000000000     0.00000000000000     0.00000000000000
    3     0.00000000000000     0.00000000000000     3.18750000000000     0.00000000000000     0.00000000000000
    4     0.00000000000000     0.00000000000000     0.00000000000000     3.18750000000000     0.00000000000000
    5     0.00000000000000     0.00000000000000     0.00000000000000     0.00000000000000     3.18750000000000
    6    -0.00000000000000    -0.00000000022770    -0.00000000000000     0.00000000000000     0.00000000000000
    7    -0.00000000022770    -0.00000137336871    -0.00000000102709     0.00000000000000     0.00000000000000
    8     0.00000000000000     0.00000000102709     0.00000000000000     0.00000000000000     0.00000000000000
    9     0.00000000000000     0.00000000000000     0.00000000000000    -0.00000000000000     0.00000000000000
   10     0.00000000000000     0.00000000000000     0.00000000000000     0.00000000000000    -0.00000000000000

                 6                   7                   8                   9                  10

    1    -0.00000000000000    -0.00000000022770     0.00000000000000     0.00000000000000     0.00000000000000
    2    -0.00000000022770    -0.00000137336871     0.00000000102709     0.00000000000000     0.00000000000000
    3    -0.00000000000000    -0.00000000102709     0.00000000000000     0.00000000000000     0.00000000000000
    4     0.00000000000000     0.00000000000000     0.00000000000000    -0.00000000000000     0.00000000000000
    5     0.00000000000000     0.00000000000000     0.00000000000000     0.00000000000000    -0.00000000000000
    6     2.92243495445378     0.46665999220234    -0.00000000000000     0.00000000000000     0.00000000000000
    7     0.46665999220234     0.44640000000000     0.00000000000000     0.00000000000000     0.00000000000000
    8    -0.00000000000000     0.00000000000000     3.18750000000000     0.00000000000000     0.00000000000000
    9     0.00000000000000     0.00000000000000     0.00000000000000     3.18750000000000     0.00000000000000
   10     0.00000000000000     0.00000000000000     0.00000000000000     0.00000000000000     3.18750000000000



  ## Potential (Symmetry 0) ##
  Irrep: 1 Size: 10 x 10

                 1                   2                   3                   4                   5

    1    -5.00268765297395    -2.13928230011779    -0.00769116670100     0.00000000000000     0.00000000000000
    2    -2.13928230011779    -1.94107113815188    -0.00995730332267     0.00000000000000     0.00000000000000
    3    -0.00769116670100    -0.00995730332267    -2.60328702329026     0.00000000000000     0.00000000000000
    4     0.00000000000000     0.00000000000000     0.00000000000000    -2.60211055270203     0.00000000000000
    5     0.00000000000000     0.00000000000000     0.00000000000000     0.00000000000000    -2.60211055270203
    6    -0.00000000000000    -0.00000000002709    -0.00000000000000     0.00000000000000     0.00000000000000
    7    -0.00000000002709    -0.00000027592311    -0.00000000011956     0.00000000000000     0.00000000000000
    8     0.00000000000000     0.00000000011956     0.00000000000000     0.00000000000000     0.00000000000000
    9     0.00000000000000     0.00000000000000     0.00000000000000    -0.00000000000000     0.00000000000000
   10     0.00000000000000     0.00000000000000     0.00000000000000     0.00000000000000    -0.00000000000000

                 6                   7                   8                   9                  10

    1    -0.00000000000000    -0.00000000002709     0.00000000000000     0.00000000000000     0.00000000000000
    2    -0.00000000002709    -0.00000027592311     0.00000000011956     0.00000000000000     0.00000000000000
    3    -0.00000000000000    -0.00000000011956     0.00000000000000     0.00000000000000     0.00000000000000
    4     0.00000000000000     0.00000000000000     0.00000000000000    -0.00000000000000     0.00000000000000
    5     0.00000000000000     0.00000000000000     0.00000000000000     0.00000000000000    -0.00000000000000
    6    -5.00268765297395    -2.13928230011779     0.00769116670100     0.00000000000000     0.00000000000000
    7    -2.13928230011779    -1.94107113815188     0.00995730332267     0.00000000000000     0.00000000000000
    8     0.00769116670100     0.00995730332267    -2.60328702329026     0.00000000000000     0.00000000000000
    9     0.00000000000000     0.00000000000000     0.00000000000000    -2.60211055270203     0.00000000000000
   10     0.00000000000000     0.00000000000000     0.00000000000000     0.00000000000000    -2.60211055270203



  ## Overlap (Symmetry 0) ##
  Irrep: 1 Size: 10 x 10

                 1                   2                   3                   4                   5

    1     1.00000000000000     0.63416773169357     0.00000000000000     0.00000000000000     0.00000000000000
    2     0.63416773169357     1.00000000000000     0.00000000000000     0.00000000000000     0.00000000000000
    3     0.00000000000000     0.00000000000000     1.00000000000000     0.00000000000000     0.00000000000000
    4     0.00000000000000     0.00000000000000     0.00000000000000     1.00000000000000     0.00000000000000
    5     0.00000000000000     0.00000000000000     0.00000000000000     0.00000000000000     1.00000000000000
    6     0.00000000000000     0.00000000002107     0.00000000000000     0.00000000000000     0.00000000000000
    7     0.00000000002107     0.00000034490390     0.00000000009841     0.00000000000000     0.00000000000000
    8    -0.00000000000000    -0.00000000009841    -0.00000000000000     0.00000000000000     0.00000000000000
    9     0.00000000000000     0.00000000000000     0.00000000000000     0.00000000000000     0.00000000000000
   10     0.00000000000000     0.00000000000000     0.00000000000000     0.00000000000000     0.00000000000000

                 6                   7                   8                   9                  10

    1     0.00000000000000     0.00000000002107    -0.00000000000000     0.00000000000000     0.00000000000000
    2     0.00000000002107     0.00000034490390    -0.00000000009841     0.00000000000000     0.00000000000000
    3     0.00000000000000     0.00000000009841    -0.00000000000000     0.00000000000000     0.00000000000000
    4     0.00000000000000     0.00000000000000     0.00000000000000     0.00000000000000     0.00000000000000
    5     0.00000000000000     0.00000000000000     0.00000000000000     0.00000000000000     0.00000000000000
    6     1.00000000000000     0.63416773169357    -0.00000000000000     0.00000000000000     0.00000000000000
    7     0.63416773169357     1.00000000000000     0.00000000000000     0.00000000000000     0.00000000000000
    8    -0.00000000000000     0.00000000000000     1.00000000000000     0.00000000000000     0.00000000000000
    9     0.00000000000000     0.00000000000000     0.00000000000000     1.00000000000000     0.00000000000000
   10     0.00000000000000     0.00000000000000     0.00000000000000     0.00000000000000     1.00000000000000



Lowest eigenvalue of overlap S = 3.6583209588E-01
S -1/2:
  ## Overlap (Symmetry 0) ##
  Irrep: 1 Size: 10 x 10

                 1                   2                   3                   4                   5

    1     1.21779445625395    -0.43553344572556    -0.00000000000000     0.00000000000000     0.00000000000000
    2    -0.43553344572556     1.21779445625404     0.00000000000000     0.00000000000000     0.00000000000000
    3    -0.00000000000000     0.00000000000000     1.00000000000000    -0.00000000000000     0.00000000000000
    4     0.00000000000000     0.00000000000000    -0.00000000000000     1.00000000000000     0.00000000000000
    5     0.00000000000000     0.00000000000000     0.00000000000000     0.00000000000000     1.00000000000000
    6    -0.00000009702316     0.00000017417902     0.00000000003380    -0.00000000000000     0.00000000000000
    7     0.00000017417902    -0.00000033389612    -0.00000000006758    -0.00000000000000     0.00000000000000
    8    -0.00000000003380     0.00000000006758     0.00000000000000     0.00000000000000     0.00000000000000
    9     0.00000000000000    -0.00000000000000    -0.00000000000000     0.00000000000000     0.00000000000000
   10     0.00000000000000     0.00000000000000     0.00000000000000     0.00000000000000     0.00000000000000

                 6                   7                   8                   9                  10

    1    -0.00000009702316     0.00000017417902    -0.00000000003380     0.00000000000000     0.00000000000000
    2     0.00000017417902    -0.00000033389612     0.00000000006758    -0.00000000000000     0.00000000000000
    3     0.00000000003380    -0.00000000006758     0.00000000000000    -0.00000000000000     0.00000000000000
    4    -0.00000000000000    -0.00000000000000     0.00000000000000     0.00000000000000     0.00000000000000
    5     0.00000000000000     0.00000000000000     0.00000000000000     0.00000000000000     0.00000000000000
    6     1.21779445625395    -0.43553344572556     0.00000000000000     0.00000000000000     0.00000000000000
    7    -0.43553344572556     1.21779445625404    -0.00000000000000    -0.00000000000000     0.00000000000000
    8     0.00000000000000    -0.00000000000000     1.00000000000000     0.00000000000000     0.00000000000000
    9     0.00000000000000    -0.00000000000000     0.00000000000000     1.00000000000000     0.00000000000000
   10     0.00000000000000     0.00000000000000     0.00000000000000     0.00000000000000     1.00000000000000



  ## One Electron Ints (Symmetry 0) ##
  Irrep: 1 Size: 10 x 10

                 1                   2                   3                   4                   5

    1    -1.59430153176945    -0.90171198534712    -0.00502952154434    -0.00000000000000     0.00000000000000
    2    -0.90171198534712    -0.83694901612489    -0.00877618845066    -0.00000000000000     0.00000000000000
    3    -0.00502952154434    -0.00877618845066     0.58421297670974    -0.00000000000000     0.00000000000000
    4    -0.00000000000000    -0.00000000000000    -0.00000000000000     0.58538944729797     0.00000000000000
    5     0.00000000000000     0.00000000000000     0.00000000000000     0.00000000000000     0.58538944729797
    6    -0.00000044516136     0.00000094230227    -0.00000000043631     0.00000000000000     0.00000000000000
    7     0.00000094230227    -0.00000211057997     0.00000000058476     0.00000000000000     0.00000000000000
    8     0.00000000043631    -0.00000000058476    -0.00000000000083    -0.00000000000000     0.00000000000000
    9    -0.00000000000000    -0.00000000000000    -0.00000000000000     0.00000000000000     0.00000000000000
   10     0.00000000000000     0.00000000000000     0.00000000000000     0.00000000000000    -0.00000000000000

                 6                   7                   8                   9                  10

    1    -0.00000044516136     0.00000094230227     0.00000000043631    -0.00000000000000     0.00000000000000
    2     0.00000094230227    -0.00000211057997    -0.00000000058476    -0.00000000000000     0.00000000000000
    3    -0.00000000043631     0.00000000058476    -0.00000000000083    -0.00000000000000     0.00000000000000
    4     0.00000000000000     0.00000000000000    -0.00000000000000     0.00000000000000     0.00000000000000
    5     0.00000000000000     0.00000000000000     0.00000000000000     0.00000000000000    -0.00000000000000
    6    -1.59430153176945    -0.90171198534712     0.00502952154434     0.00000000000000     0.00000000000000
    7    -0.90171198534712    -0.83694901612489     0.00877618845066     0.00000000000000     0.00000000000000
    8     0.00502952154434     0.00877618845066     0.58421297670974    -0.00000000000000     0.00000000000000
    9     0.00000000000000     0.00000000000000    -0.00000000000000     0.58538944729797     0.00000000000000
   10     0.00000000000000     0.00000000000000     0.00000000000000     0.00000000000000     0.58538944729797



If anything went wrong: Is c1 equal to c1?
sotoao
  ## AO->SO matrix (Symmetry 0) ##
  Irrep: 1 Size: 10 x 10

                 1                   2                   3                   4                   5

    1     1.00000000000000     0.00000000000000     0.00000000000000     0.00000000000000     0.00000000000000
    2     0.00000000000000     1.00000000000000     0.00000000000000     0.00000000000000     0.00000000000000
    3     0.00000000000000     0.00000000000000     0.00000000000000     0.00000000000000     1.00000000000000
    4     0.00000000000000     0.00000000000000     1.00000000000000     0.00000000000000     0.00000000000000
    5     0.00000000000000     0.00000000000000     0.00000000000000     1.00000000000000     0.00000000000000
    6     0.00000000000000     0.00000000000000     0.00000000000000     0.00000000000000     0.00000000000000
    7     0.00000000000000     0.00000000000000     0.00000000000000     0.00000000000000     0.00000000000000
    8     0.00000000000000     0.00000000000000     0.00000000000000     0.00000000000000     0.00000000000000
    9     0.00000000000000     0.00000000000000     0.00000000000000     0.00000000000000     0.00000000000000
   10     0.00000000000000     0.00000000000000     0.00000000000000     0.00000000000000     0.00000000000000

                 6                   7                   8                   9                  10

    1     0.00000000000000     0.00000000000000     0.00000000000000     0.00000000000000     0.00000000000000
    2     0.00000000000000     0.00000000000000     0.00000000000000     0.00000000000000     0.00000000000000
    3     0.00000000000000     0.00000000000000     0.00000000000000     0.00000000000000     0.00000000000000
    4     0.00000000000000     0.00000000000000     0.00000000000000     0.00000000000000     0.00000000000000
    5     0.00000000000000     0.00000000000000     0.00000000000000     0.00000000000000     0.00000000000000
    6     1.00000000000000     0.00000000000000     0.00000000000000     0.00000000000000     0.00000000000000
    7     0.00000000000000     1.00000000000000     0.00000000000000     0.00000000000000     0.00000000000000
    8     0.00000000000000     0.00000000000000     0.00000000000000     0.00000000000000     1.00000000000000
    9     0.00000000000000     0.00000000000000     1.00000000000000     0.00000000000000     0.00000000000000
   10     0.00000000000000     0.00000000000000     0.00000000000000     1.00000000000000     0.00000000000000



*** OEI
0 0 -1.594301531769452884290672045608516782522201538086 
0 1 -0.901711985347116939948364233714528381824493408203 
0 2 -0.005029521544339477477636446423048255383037030697 
0 3 -0.000000000000000000000581110965248769195880341383 
0 4 0.000000000000000000000000000000000000000000000000 
0 5 -0.000000445161355140311896737666729970128720594857 
0 6 0.000000942302267322352713447924064948946210051872 
0 7 0.000000000436312658838402131590421074639049234256 
0 8 -0.000000000000000000000231607863809906205297956733 
0 9 0.000000000000000000000000000000000000000000000000 
1 1 -0.836949016124894473733775157597847282886505126953 
1 2 -0.008776188450656403558514107032806350616738200188 
1 3 -0.000000000000000000000296929415718430899035157924 
1 4 0.000000000000000000000000000000000000000000000000 
1 5 0.000000942302268133561990384879872989509763669957 
1 6 -0.000002110579971511495712342383959669867010688904 
1 7 -0.000000000584759960474647798131153261476985333323 
1 8 -0.000000000000000000000063311470220512290359219533 
1 9 0.000000000000000000000000000000000000000000000000 
2 2 0.584212976709738152081285988970194011926651000977 
2 3 -0.000000000000000000000003574530557735341391614561 
2 4 0.000000000000000000000000000000000000000000000000 
2 5 -0.000000000436312545699994904006977314853544906714 
2 6 0.000000000584759972120396049655743591472699394185 
2 7 -0.000000000000826053429905580544109197344611175207 
2 8 -0.000000000000000000000093985306803470515319850621 
2 9 0.000000000000000000000000000000000000000000000000 
3 3 0.585389447297973264383585956238675862550735473633 
3 4 0.000000000000000000000000000000000000000000000000 
3 5 0.000000000000000144425467545200856790725516449357 
3 6 0.000000000000000084876928327080497928239724350327 
3 7 -0.000000000000000000987497889601077166594812215800 
3 8 0.000000000000000162478210674455791660189093605647 
3 9 0.000000000000000000000000000000000000000000000000 
4 4 0.585389447297973486428190881269983947277069091797 
4 5 0.000000000000000000000000000000000000000000000000 
4 6 0.000000000000000000000000000000000000000000000000 
4 7 0.000000000000000000000000000000000000000000000000 
4 8 0.000000000000000000000000000000000000000000000000 
4 9 -0.000000000000000000000000016245565627206645013158 
5 5 -1.594301531769453106335276970639824867248535156250 
5 6 -0.901711985347117161992969158745836466550827026367 
5 7 0.005029521544339539060319843599700107006356120110 
5 8 0.000000000000000068740977882901169403057399183831 
5 9 0.000000000000000000000000000000000000000000000000 
6 6 -0.836949016124893585555355457472614943981170654297 
6 7 0.008776188450656434783536674615334050031378865242 
6 8 0.000000000000000008293571795241151187797468576236 
6 9 0.000000000000000000000000000000000000000000000000 
7 7 0.584212976709738596170495839032810181379318237305 
7 8 -0.000000000000000000520133188166762151728414173603 
7 9 0.000000000000000000000000000000000000000000000000 
8 8 0.585389447297973708472795806301292032003402709961 
8 9 0.000000000000000000000000000000000000000000000000 
9 9 0.585389447297973486428190881269983947277069091797 
*** TEI
0 0 0 0 1.543035780443075655199436369002796709537506103516 
1 0 0 0 0.784979246052457391158441168954595923423767089844 
1 1 0 0 0.803460375219950506675559154246002435684204101562 
1 0 1 0 0.426774490279782647839112996734911575913429260254 
1 1 1 0 0.475907729785328303950819872625288553535938262939 
1 1 1 1 0.615561604157686348415268184908200055360794067383 
2 2 0 0 1.099798622537393022469132120022550225257873535156 
3 3 0 0 1.099798622537393022469132120022550225257873535156 
4 4 0 0 1.099798622537393022469132120022550225257873535156 
2 0 2 0 0.177307454194563868243861293194640893489122390747 
3 0 3 0 0.177307454194563868243861293194640893489122390747 
4 0 4 0 0.177307454194563868243861293194640893489122390747 
2 2 1 0 0.627782301689996158344797549943905323743820190430 
3 3 1 0 0.627782301689996158344797549943905323743820190430 
4 4 1 0 0.627782301689996158344797549943905323743820190430 
2 1 2 0 0.142523547559244484483897963400522712618112564087 
3 1 3 0 0.142523547559244484483897963400522712618112564087 
4 1 4 0 0.142523547559244484483897963400522712618112564087 
2 2 1 1 0.734403725832398324158134528261143714189529418945 
3 3 1 1 0.734403725832398324158134528261143714189529418945 
4 4 1 1 0.734403725832398324158134528261143714189529418945 
2 1 2 1 0.130007885957438840129896107100648805499076843262 
3 1 3 1 0.130007885957438840129896107100648805499076843262 
4 1 4 1 0.130007885957438840129896107100648805499076843262 
2 2 2 2 1.040530899123286889818018607911653816699981689453 
3 2 3 2 0.063705973415711436569353054437669925391674041748 
3 3 2 2 0.913118952291863905657010036520659923553466796875 
3 3 3 3 1.040530899123286889818018607911653816699981689453 
4 2 4 2 0.063705973415711436569353054437669925391674041748 
4 3 4 3 0.063705973415711436569353054437669925391674041748 
4 4 2 2 0.913118952291863905657010036520659923553466796875 
4 4 3 3 0.913118952291863905657010036520659923553466796875 
4 4 4 4 1.040530899123286889818018607911653816699981689453 
5 1 0 0 0.000000000002611616876549585498816786487546743722 
5 1 1 0 0.000000000001656203150654095242150527654073855827 
5 1 1 1 0.000000000002611616876549376280282947391679759645 
5 1 2 0 0.000000000000124506216604829416482476237294541252 
5 1 2 1 0.000000000000161190910623789746907881310298721073 
5 1 2 2 0.000000000002627357558707590988288355839938093342 
5 1 3 3 0.000000000002603746535470583157977785284509113283 
5 1 4 4 0.000000000002603746535470583157977785284509113283 
5 5 0 0 0.100000000000000005551115123125782702118158340454 
5 5 1 0 0.063416773169356940864638261246000183746218681335 
5 5 1 1 0.099999999999999977795539507496869191527366638184 
5 5 2 0 0.003845583350497506092829924639886485238093882799 
5 5 2 1 0.004978651661336661385370838672770332777872681618 
5 5 2 2 0.100392156862745107748224882016074843704700469971 
5 5 3 3 0.099803921568627454452560243680636631324887275696 
5 5 4 4 0.099803921568627454452560243680636631324887275696 
5 5 5 1 0.000000000010860285438053596032210821012740442973 
5 5 5 5 1.543035780443075655199436369002796709537506103516 
6 0 0 0 0.000000000010860285438053599263385088798004797939 
6 1 0 0 0.000000068980735151691575943660528560941180842292 
6 0 1 0 0.000000000006818089956675046693337557687828278438 
6 1 1 0 0.000000043745245001006315812427873053469529196491 
6 0 1 1 0.000000000010102699801579902492677837746506421760 
6 1 1 1 0.000000068972877435084411299982202602637526567264 
6 2 0 0 0.000000000047320604422102418889149200796726164875 
6 0 2 0 0.000000000002031218297116435995644196552633014424 
6 2 1 0 0.000000000029866018070204296504689502417953582240 
6 1 2 0 0.000000005305306039872537561503971299727705490668 
6 0 2 1 0.000000000002466330795987662403614093816031264212 
6 2 1 1 0.000000000045038182041300970658803232390376947679 
6 1 2 1 0.000000006868080038435970928800336629191369830494 
6 2 2 0 0.000000000008488038514244720406406119759540335060 
6 3 3 0 0.000000000000871928973671255227734972659164291975 
6 4 4 0 0.000000000000871928973671255227734972659164291975 
6 0 2 2 0.000000000011652104021763413818394128227074808173 
6 0 3 3 0.000000000010294245686768658862346430895648436007 
6 0 4 4 0.000000000010294245686768658862346430895648436007 
6 2 2 1 0.000000000010553324703743517334401328231464835435 
6 3 3 1 0.000000000001055540750339140812377414463763129927 
6 4 4 1 0.000000000001055540750339140812377414463763129927 
6 1 2 2 0.000000070062449693762715780685670485111726790706 
6 1 3 3 0.000000068439705454728378432644364699755090697408 
6 1 4 4 0.000000068439705454728378432644364699755090697408 
6 2 2 2 0.000000000050901469129569107302324101276236019767 
6 2 3 3 0.000000000045239695434734808896897408669979614472 
6 2 4 4 0.000000000045239695434734808896897408669979614472 
6 3 3 2 0.000000000000589147836829765026583244128956730034 
6 4 4 2 0.000000000000589147836829765026583244128956730034 
6 5 0 0 0.063416773169356954742426069060456939041614532471 
6 5 1 0 0.040216871192136710577713643033348489552736282349 
6 5 1 1 0.063416773169356940864638261246000183746218681335 
6 5 2 0 0.002438744870423559685940206875898184080142527819 
6 5 2 1 0.003157300230962291863467950037147602415643632412 
6 5 2 2 0.063665466397472073034613515574164921417832374573 
6 5 3 3 0.063292426555299388657438441896374570205807685852 
6 5 4 4 0.063292426555299388657438441896374570205807685852 
6 0 5 5 0.000000000002611616876549586306610353433862832463 
6 5 5 1 0.000000000006818089956675045077750423795196100954 
6 1 5 5 0.000000068980735151691575943660528560941180842292 
6 2 5 5 0.000000000012389346605838191860765370360776343409 
6 5 5 5 0.784979246052457391158441168954595923423767089844 
6 6 0 0 0.099999999999999977795539507496869191527366638184 
6 6 1 0 0.063416773169356940864638261246000183746218681335 
6 6 1 1 0.099999999999998756550212419824674725532531738281 
6 1 6 1 0.000000000000073226409728128552405526298179760151 
6 6 2 0 0.003845583350497503924425579668877617223188281059 
6 6 2 1 0.004978651661336659650647362695963238365948200226 
6 6 2 2 0.100392156862745121626012689830531599000096321106 
6 6 3 3 0.099803921568627468330348051495093386620283126831 
6 6 4 4 0.099803921568627468330348051495093386620283126831 
6 5 6 0 0.000000000001656203150654095444098919390652878013 
6 6 5 1 0.000000000010102699801579900877090703853874244277 
6 5 6 1 0.000000043745245001006329047317673901912327139030 
6 5 6 2 0.000000000007856923834189827764620371761864305645 
6 6 5 5 0.803460375219950506675559154246002435684204101562 
6 5 6 5 0.426774490279782647839112996734911575913429260254 
6 6 6 0 0.000000000002611616876549376684179730864837804016 
6 6 6 1 0.000000068972877435084411299982202602637526567264 
6 6 6 2 0.000000000012389346605836863848141310617126452202 
6 6 6 5 0.475907729785328303950819872625288553535938262939 
6 6 6 6 0.615561604157686348415268184908200055360794067383 
7 1 0 0 -0.000000000012389346605838191860765370360776343409 
7 1 1 0 -0.000000000007856923834189827764620371761864305645 
7 1 1 1 -0.000000000012389346605836863848141310617126452202 
7 1 2 0 -0.000000000000599580401092464043254121978635768427 
8 1 3 0 0.000000000000011930430993025744534703818095863688 
9 1 4 0 0.000000000000011930430993025744534703818095863688 
7 1 2 1 -0.000000000000776241648648109074465967113589581685 
8 1 3 1 0.000000000000015445630654763015108362118875335182 
9 1 4 1 0.000000000000015445630654763015108362118875335182 
7 1 2 2 -0.000000000012466261391062690151226452684470844294 
7 1 3 3 -0.000000000012350889213225949985676931715773891642 
7 1 4 4 -0.000000000012350889213225949985676931715773891642 
8 1 3 2 0.000000000000002250883768488835681282483654830642 
9 1 4 2 0.000000000000002250883768488835681282483654830642 
7 5 0 0 -0.003845583350497506092829924639886485238093882799 
7 5 1 0 -0.002438744870423559685940206875898184080142527819 
7 5 1 1 -0.003845583350497503924425579668877617223188281059 
7 5 2 0 -0.000295770226112469889097333908267728475038893521 
8 5 3 0 0.000147885113056233616401005659390932578389765695 
9 5 4 0 0.000147885113056233616401005659390932578389765695 
7 5 2 1 -0.000382916398735258533582437312503543580533005297 
8 5 3 1 0.000191458199367628372324426355710613734117941931 
9 5 4 1 0.000191458199367628372324426355710613734117941931 
7 5 2 2 -0.003890825507562182053455934749308653408661484718 
7 5 3 3 -0.003822962271965167461995616093872740748338401318 
7 5 4 4 -0.003822962271965167461995616093872740748338401318 
8 5 3 2 0.000022621078532338065016299780141117992116051028 
9 5 4 2 0.000022621078532338065016299780141117992116051028 
7 5 5 1 -0.000000000002031218297116435591747413079474970053 
7 1 5 5 -0.000000000047320604422102418889149200796726164875 
7 6 0 0 -0.004978651661336661385370838672770332777872681618 
7 6 1 0 -0.003157300230962291863467950037147602415643632412 
7 6 1 1 -0.004978651661336659650647362695963238365948200226 
7 6 2 0 -0.000382916398735258425162220063953100179787725210 
8 6 3 0 0.000191458199367628345219372043573002883931621909 
9 6 4 0 0.000191458199367628345219372043573002883931621909 
7 6 2 1 -0.000495739447298605738836951850601053592981770635 
8 6 3 1 0.000247869723649302923628584549575748496863525361 
9 6 4 1 0.000247869723649302923628584549575748496863525361 
7 6 2 2 -0.005037224033822977273255894203884963644668459892 
7 6 3 3 -0.004949365475093506910875262860827206168323755264 
7 6 4 4 -0.004949365475093506910875262860827206168323755264 
8 6 3 2 0.000029286186243156839411564545949673288305348251 
9 6 4 2 0.000029286186243156839411564545949673288305348251 
7 5 6 0 -0.000000000000124506216604829441726025204366919025 
7 6 5 1 -0.000000000002466330795987661999717310342873219842 
7 5 6 1 -0.000000005305306039872537561503971299727705490668 
7 1 6 5 -0.000000000029866018070204296504689502417953582240 
7 5 6 2 -0.000000000000599580401092463942279926110346257334 
8 5 6 3 0.000000000000011930430993025742956982007653840077 
9 5 6 4 0.000000000000011930430993025742956982007653840077 
7 6 6 0 -0.000000000000161190910623789772151430277371098846 
7 6 6 1 -0.000000006868080038435970928800336629191369830494 
7 1 6 6 -0.000000000045038182041300970658803232390376947679 
7 6 6 2 -0.000000000000776241648648109074465967113589581685 
8 6 6 3 0.000000000000015445630654763015108362118875335182 
9 6 6 4 0.000000000000015445630654763015108362118875335182 
7 7 0 0 0.100392156862745107748224882016074843704700469971 
8 8 0 0 0.099803921568627454452560243680636631324887275696 
9 9 0 0 0.099803921568627454452560243680636631324887275696 
7 7 1 0 0.063665466397472073034613515574164921417832374573 
8 8 1 0 0.063292426555299388657438441896374570205807685852 
9 9 1 0 0.063292426555299388657438441896374570205807685852 
7 7 1 1 0.100392156862745121626012689830531599000096321106 
8 8 1 1 0.099803921568627468330348051495093386620283126831 
9 9 1 1 0.099803921568627468330348051495093386620283126831 
7 7 2 0 0.003890825507562182053455934749308653408661484718 
8 8 2 0 0.003822962271965167461995616093872740748338401318 
9 9 2 0 0.003822962271965167461995616093872740748338401318 
8 7 3 0 -0.000022621078532338065016299780141117992116051028 
9 7 4 0 -0.000022621078532338065016299780141117992116051028 
7 7 2 1 0.005037224033822977273255894203884963644668459892 
8 8 2 1 0.004949365475093506910875262860827206168323755264 
9 9 2 1 0.004949365475093506910875262860827206168323755264 
8 7 3 1 -0.000029286186243156839411564545949673288305348251 
9 7 4 1 -0.000029286186243156839411564545949673288305348251 
7 7 2 2 0.100793540945790086049704825654771411791443824768 
7 7 3 3 0.100191464821222625536378814103954937309026718140 
7 7 4 4 0.100191464821222625536378814103954937309026718140 
8 7 3 2 -0.000004613610149942333089607797436126901402531075 
8 8 2 2 0.100191464821222611658591006289498182013630867004 
8 8 3 3 0.099611303344867382913996323168248636648058891296 
8 8 4 4 0.099608996539792410418456825027533341199159622192 
9 7 4 2 -0.000004613610149942333089607797436126901402531075 
9 8 4 3 0.000001153402537485583272401949359031725350632769 
9 9 2 2 0.100191464821222611658591006289498182013630867004 
9 9 3 3 0.099608996539792410418456825027533341199159622192 
9 9 4 4 0.099611303344867382913996323168248636648058891296 
7 7 5 1 0.000000000011652104021763412202806994334442630690 
8 8 5 1 0.000000000010294245686768657246759297003016258524 
9 9 5 1 0.000000000010294245686768657246759297003016258524 
7 5 7 1 0.000000000008488038514244720406406119759540335060 
8 5 8 1 0.000000000000871928973671255227734972659164291975 
9 5 9 1 0.000000000000871928973671255227734972659164291975 
7 7 5 5 1.099798622537393022469132120022550225257873535156 
8 8 5 5 1.099798622537393022469132120022550225257873535156 
9 9 5 5 1.099798622537393022469132120022550225257873535156 
7 5 7 5 0.177307454194563868243861293194640893489122390747 
8 5 8 5 0.177307454194563868243861293194640893489122390747 
9 5 9 5 0.177307454194563868243861293194640893489122390747 
7 7 6 0 0.000000000002627357558707591796081922786254182083 
8 8 6 0 0.000000000002603746535470583965771352230825202024 
9 9 6 0 0.000000000002603746535470583965771352230825202024 
7 7 6 1 0.000000070062449693762715780685670485111726790706 
8 8 6 1 0.000000068439705454728378432644364699755090697408 
9 9 6 1 0.000000068439705454728378432644364699755090697408 
7 6 7 1 0.000000000010553324703743515718814194338832657951 
8 6 8 1 0.000000000001055540750339140812377414463763129927 
9 6 9 1 0.000000000001055540750339140812377414463763129927 
7 7 6 2 0.000000000012466261391062690151226452684470844294 
8 8 6 2 0.000000000012350889213225949985676931715773891642 
9 9 6 2 0.000000000012350889213225949985676931715773891642 
8 7 6 3 -0.000000000000002250883768488835681282483654830642 
9 7 6 4 -0.000000000000002250883768488835681282483654830642 
7 7 6 5 0.627782301689996158344797549943905323743820190430 
8 8 6 5 0.627782301689996158344797549943905323743820190430 
9 9 6 5 0.627782301689996158344797549943905323743820190430 
7 6 7 5 0.142523547559244484483897963400522712618112564087 
8 6 8 5 0.142523547559244484483897963400522712618112564087 
9 6 9 5 0.142523547559244484483897963400522712618112564087 
7 7 6 6 0.734403725832398324158134528261143714189529418945 
8 8 6 6 0.734403725832398324158134528261143714189529418945 
9 9 6 6 0.734403725832398324158134528261143714189529418945 
7 6 7 6 0.130007885957438840129896107100648805499076843262 
8 6 8 6 0.130007885957438840129896107100648805499076843262 
9 6 9 6 0.130007885957438840129896107100648805499076843262 
7 7 7 1 -0.000000000050901469129569107302324101276236019767 
8 8 7 1 -0.000000000045239695434734808896897408669979614472 
9 9 7 1 -0.000000000045239695434734808896897408669979614472 
8 7 8 1 -0.000000000000589147836829765026583244128956730034 
9 7 9 1 -0.000000000000589147836829765026583244128956730034 
7 7 7 7 1.040530899123286889818018607911653816699981689453 
8 7 8 7 0.063705973415711436569353054437669925391674041748 
8 8 7 7 0.913118952291863905657010036520659923553466796875 
8 8 8 8 1.040530899123286889818018607911653816699981689453 
9 7 9 7 0.063705973415711436569353054437669925391674041748 
9 8 9 8 0.063705973415711436569353054437669925391674041748 
9 9 7 7 0.913118952291863905657010036520659923553466796875 
9 9 8 8 0.913118952291863905657010036520659923553466796875 
9 9 9 9 1.040530899123286889818018607911653816699981689453 
number of TEI: 254

*** PSI4 exiting successfully. Buy a developer a beer!
